83
Lattice="12.049483852 0.014100787 -2.826267705 -3.571931226 11.145541253 -3.653909468 0.023363077 0.084157872 12.436688049" Properties=species:S:1:pos:R:3:forces:R:3 energy=-358.22537474 pbc="T T T"
Li      -1.54922000       7.78907000       0.49805000       0.30190300      -0.37077100       0.22219400
Li       3.63717000       4.43547000      -0.33097000       0.06430200      -0.48989000      -0.13786500
Li      10.55949000       4.09189000       5.46207000       0.07024400      -0.01399300       0.28681200
Li       0.60301000       9.60084000      -1.27027000       0.12336400       0.06497400       0.15778900
Li       2.55902000       0.24009000      11.01185000       0.15994600      -0.00147200       0.13754000
Li       8.08225000      11.17352000      -3.67192000       0.23115100       0.18740700       0.03456600
Li       7.04610000       7.92447000      -2.70160000      -0.24024500      -0.05821100      -0.16769400
Li       2.71124000       7.44556000      -1.85424000       0.23293300       0.38104100      -0.21944600
Li       5.48851000      10.77012000      -0.68026000      -0.24931500       0.09069100      -0.04655200
Li       9.70511000       4.04320000      -1.80390000       0.26221600      -0.12514300       0.11332800
Li       6.07795000       0.97655000       0.76916000       0.66945100      -0.16179500       0.19988500
Li      -0.87912000       7.36855000       3.67623000       0.08183400      -0.09387200      -0.32371400
Li       5.12130000       7.65403000       1.92807000       0.09418200       0.10642400       0.12854600
Li       3.16320000       3.83595000       4.16636000      -0.04760600      -0.05260600      -0.16450800
Li       8.47796000       3.81659000       2.38434000       0.07040100      -0.46001200       0.36206700
Li       2.05276000       9.55104000       5.18975000      -0.31332700       0.02642400      -0.02551800
Li       7.49609000       9.54682000       5.19854000      -0.43493500      -0.06575300       0.20300900
Li       4.35522000       4.12253000       7.14596000       0.33005000      -0.16129800       0.14337900
Li       7.91875000       1.50731000       6.69394000      -0.25871900       0.07789100       0.06264600
Li       8.31624000      11.19730000       2.48129000      -0.49855200       0.28582000      -0.14608300
Li       3.17899000       0.10361000       6.36238000       0.04141400       0.40050300       0.08104200
Li       1.22563000       1.94450000       0.77823000       0.01329600      -0.15089400       0.82249700
Li       8.39035000       0.35078000      -1.50455000       0.32555300       0.77882200      -0.81624800
Li      -0.92168000       7.28742000       7.80630000       0.07771400       0.03547900       0.02139600
Li       5.00980000       7.01369000       6.67614000       0.23147200       0.66278800       0.06207900
Li       1.75041000       2.99584000       8.88652000       0.09309100       0.28300600      -0.20349800
Li       7.59117000       4.40002000       8.74725000      -0.40148800      -1.15670100      -0.39731300
P       -2.44486000       8.90766000      -2.42865000      -0.89667800       2.95733000      -0.09404500
P        3.60447000       9.19084000      -4.06962000       0.20725900      -0.63986700       1.30190100
P        1.35080000       5.59344000       1.12711000      -1.26433400      -1.05853700       0.02986000
P        7.43019000       5.43260000      -0.14352000      -1.76831900      -0.08984500      -0.55818700
P        2.40883000       9.07099000       1.63417000       0.15206700      -1.08988500      -0.67421900
P        8.31314000       8.75464000       0.61534000      -0.11017400      -0.07508600      -1.29792200
P        0.15854000       2.40154000       5.50403000       1.49815300      -0.00287000      -2.37418700
P        6.07428000       2.29997000       4.02338000      -0.20690600       0.79499200       1.62049300
P        1.33499000       5.82100000       6.21403000      -0.94205400      -0.12816100       0.62421400
P        7.11710000       5.73637000       4.77316000      -0.50235600      -0.03084000      -0.15895900
P        4.83473000       1.97411000       9.80668000       0.13283600       0.68244300       0.38038000
P       10.89880000       2.00075000       8.51497000      -0.43736300       1.03228300       1.73523000
S        1.55721000       8.97875000      -3.58491000       1.38200600       0.50028500      -0.12706700
S        7.55334000       9.15507000      -4.77268000       0.48919400      -0.87099900      -0.41912000
S       -1.25351000       7.49677000      -1.83918000       0.61733900      -2.13174800      -0.01539100
S        4.57869000       7.43097000      -3.38228000      -0.35524300       0.54877200      -0.14779500
S        4.43494000       1.55161000      -0.63928000      -0.59815800       0.05769700      -0.20861900
S       10.76848000       1.86505000      -1.77605000      -0.10951100      -0.17307400      -0.93198900
S        1.58738000       5.75488000      -0.88383000      -0.35254100      -0.33115200       0.65784500
S        8.01265000       5.73541000      -2.09997000      -0.10347500       1.04030300       0.47148200
S       -1.62300000      10.54734000      -1.48114000      -0.15095300       0.97136100       0.06530100
S        4.69573000      10.77637000      -3.06639000      -0.93800700      -0.34932300       0.20570500
S       -0.70828000       5.71127000       1.75335000       1.10834700       0.29856300      -0.55368300
S        5.40397000       5.92730000       0.22628000       1.62743300       0.20404300      -0.22420400
S        2.32088000       3.85339000       1.81510000      -0.32961800       0.65919500      -0.52187800
S        7.91618000       3.52590000       0.18807000       0.16602700      -0.25098400       0.09247100
S        3.35645000       9.16505000      -0.20458000      -0.68507000       0.11992000       0.94824700
S        8.75374000       9.07142000      -1.38444000      -0.51031500       0.13608400       0.70750900
S        4.83787000       1.53982000       2.71780000      -0.58794700      -0.50219900      -0.66873300
S       10.72622000       1.78681000       1.42779000       0.19158400       0.05440000       0.55571600
S        2.32739000       6.92341000       2.33532000       1.32370600       0.87094900       0.49579700
S        8.65134000       6.57145000       1.15180000      -0.53121500       1.00011200      -0.26485800
S        0.40742000       9.37191000       1.52428000      -0.17083500       0.43809300      -0.19069900
S        6.61968000       9.65531000       1.19998000      -0.55824200      -0.39701400      -0.10736200
S        2.09708000       1.83559000       5.05481000      -0.65079500      -0.13070500       0.20619300
S        8.02295000       1.79839000       4.00869000       0.30136100       0.09431100      -0.03900200
S        0.21977000       4.46651000       4.88534000      -0.31003200       0.53837900       0.38157400
S        5.76985000       4.45878000       3.47660000       0.90766100      -0.18695200       0.65683600
S       -2.34619000       9.52791000       4.57842000       1.93593200      -0.17469800       0.53023200
S        3.54830000       9.68452000       3.18785000      -0.37804400       0.16728100      -0.47309400
S       -0.21109000       2.18429000       7.38438000      -0.62055700      -0.32601000       2.47364900
S        5.34021000       2.12338000       5.96244000       0.49849100      -0.10410200      -0.41617900
S        0.40452000       7.57811000       5.64922000       0.30538400      -0.12335700       0.12426200
S        6.42590000       7.58867000       4.26791000      -0.29874500      -0.68161000      -0.21451100
S        3.29288000       5.71735000       5.73992000      -0.04172400      -0.23761700      -0.42645200
S        8.97886000       5.29786000       4.12210000       0.62399900       0.33492300       0.27360500
S        3.68774000       0.49140000       8.80446000       0.36018200       0.41988400       0.23336500
S       10.06168000       0.36253000       7.74964000      -0.02403400      -0.94336800      -0.62372800
S        0.94458000       5.54741000       8.21829000      -0.19791300      -0.30802400      -0.63288800
S        6.92472000       5.51912000       6.78378000      -0.45596800      -0.01017500      -0.28877400
S       -2.29010000       9.34928000       7.96406000       0.36936900      -0.50879200      -0.19375800
S        4.08902000       9.55416000       6.39767000      -0.27326600      -0.39211200       0.17580500
S        4.04401000       3.96796000       9.62737000       0.21996700      -1.26186800      -1.02986900
S        9.71392000       3.55669000       7.84406000       0.39542300       0.04062300      -0.29507300
S        0.83154000       2.40470000      11.03209000       0.07087100      -0.59194400      -0.91437700
S        6.86728000       1.95490000       9.40939000      -0.55094500       0.10714200      -0.24894500
83
Lattice="12.049483852 0.014100787 -2.826267705 -3.571931226 11.145541253 -3.653909468 0.023363077 0.084157872 12.436688049" Properties=species:S:1:pos:R:3:forces:R:3 energy=-358.31220756 pbc="T T T"
Li      -1.51068000       7.77807000       0.49228000       0.19384000      -0.29968100       0.28409800
Li       3.62428000       4.43083000      -0.33539000       0.08276700      -0.45698500      -0.12917900
Li      10.55256000       4.08361000       5.48874000       0.04544100      -0.00192200       0.21187900
Li       0.59741000       9.60939000      -1.25668000       0.12416600       0.06367400       0.14950200
Li       2.54850000       0.24661000      11.02237000       0.17093400      -0.00051500       0.10592600
Li      11.65602000       0.04627000      -0.01130000       0.20373100       0.14178100       0.00545400
Li       7.03256000       7.92004000      -2.70934000      -0.18088000      -0.04198900      -0.16036600
Li       2.69308000       7.43416000      -1.85394000       0.28615700       0.42584200      -0.23005900
Li       5.48485000      10.78360000      -0.69539000      -0.22137700       0.06716100      -0.00591100
Li       9.73535000       4.03127000      -1.77912000       0.12840500      -0.05054600       0.09293300
Li       6.08550000       0.97068000       0.78429000       0.63496400      -0.14139300       0.12430100
Li      -0.85390000       7.37815000       3.67859000       0.00949100      -0.09134500      -0.37310400
Li       5.11149000       7.67911000       1.94663000       0.11790300       0.05167000       0.07643600
Li       3.18853000       3.86068000       4.19224000      -0.08414500      -0.19138600      -0.26136900
Li       8.49541000       3.83436000       2.36820000       0.07071100      -0.49425700       0.35792500
Li       2.04799000       9.55020000       5.14225000      -0.27303600       0.03005200       0.06802600
Li       7.49670000       9.55112000       5.22484000      -0.49258300      -0.08282500       0.12958900
Li       4.37540000       4.13910000       7.13891000       0.35182000      -0.20700400       0.18310100
Li       7.91065000       1.52619000       6.71165000      -0.26102300       0.07449300       0.07374400
Li       8.32697000      11.20104000       2.48474000      -0.54429300       0.31860600      -0.13903400
Li       3.16595000       0.12319000       6.33616000       0.08190200       0.33290800       0.16263900
Li       1.23360000       1.94216000       0.79016000      -0.03599000      -0.16772800       0.78386800
Li       8.38850000       0.36188000      -1.48425000       0.30054300       0.76439100      -0.97029200
Li      -0.93097000       7.29512000       7.81281000       0.09319000       0.01751200       0.01136800
Li       5.00308000       7.02210000       6.68815000       0.22956700       0.63149900       0.00581700
Li       1.76243000       3.01045000       8.89655000       0.05726800       0.25537600      -0.22842200
Li       7.59020000       4.39821000       8.76489000      -0.41426100      -1.16679300      -0.42887800
P       -2.44544000       8.92082000      -2.43814000      -0.76453000       2.44089100       0.17971800
P        3.59698000       9.17937000      -4.07147000       0.40313100      -0.52191500       0.99981000
P        1.33894000       5.58678000       1.13974000      -1.13534500      -1.01364000      -0.11969100
P        7.42112000       5.43800000      -0.13659000      -1.52577900      -0.26820700      -0.59862000
P        2.41442000       9.07605000       1.63997000       0.23259700      -1.13195800      -0.77006800
P        8.30446000       8.73976000       0.61905000       0.20330900       0.04124500      -1.22348800
P        0.16580000       2.40863000       5.48997000       1.50541600      -0.01003400      -2.20696700
P        6.08365000       2.29766000       4.02060000      -0.41205400       0.79065000       1.58320500
P        1.33573000       5.81814000       6.22059000      -0.86918400      -0.08284200       0.34699400
P        7.12595000       5.73916000       4.77287000      -0.65485900      -0.03394800      -0.19892100
P        4.81551000       1.96841000       9.82102000       0.45652200       0.72025300      -0.03214500
P       10.90398000       2.00034000       8.50495000      -0.57149900       0.97342500       1.86501800
S        1.56533000       8.97450000      -3.58282000       1.23803600       0.47916000      -0.11809100
S        7.55519000       9.16606000      -4.78551000       0.42854900      -0.87560000      -0.30564900
S       -1.25001000       7.49257000      -1.83432000       0.38547500      -1.77767400      -0.21093200
S        4.58492000       7.43050000      -3.37889000      -0.42186100       0.50575600      -0.13496900
S        4.43747000       1.55483000      -0.64304000      -0.63756900      -0.02451600       0.14937100
S       10.76663000       1.87455000      -1.77867000      -0.05056200      -0.26553500      -0.94654600
S        1.57507000       5.75647000      -0.87336000      -0.35893500      -0.35788200       0.66144700
S        8.01284000       5.73451000      -2.09132000      -0.06018300       1.05436900       0.47342400
S       -1.63892000      10.54696000      -1.48638000       0.04282300       1.13349800       0.17471900
S        4.68905000      10.76774000      -3.07738000      -0.91840600      -0.36265500       0.36295000
S       -0.70570000       5.70779000       1.75032000       1.02199800       0.35458500      -0.45584400
S        5.41239000       5.92149000       0.22543000       1.44525700       0.28052500      -0.13542200
S        2.30768000       3.85027000       1.81301000      -0.24631000       0.61341100      -0.40303000
S        7.91907000       3.52325000       0.18172000       0.12488400      -0.14660000       0.12318900
S        3.35313000       9.17261000      -0.20233000      -0.65988000       0.07783200       0.93033300
S        8.75240000       9.05957000      -1.38024000      -0.45531900       0.08955300       0.68765400
S        4.84033000       1.54046000       2.71023000      -0.49975700      -0.44103800      -0.56238300
S       10.73018000       1.79533000       1.43511000       0.05558800      -0.00541400       0.36752400
S        2.33635000       6.90910000       2.33595000       1.28183000       0.99431600       0.51835300
S        8.65933000       6.57139000       1.15953000      -0.60708200       0.95720600      -0.32358600
S        0.42128000       9.38430000       1.51772000      -0.30154200       0.40419500      -0.13771400
S        6.62514000       9.65265000       1.19837000      -0.74605000      -0.33160600      -0.10273200
S        2.09664000       1.82465000       5.04908000      -0.64051800       0.03102700       0.09209500
S        8.02660000       1.80155000       4.01662000       0.38864300       0.07075900      -0.06183000
S        0.21325000       4.47159000       4.88313000      -0.24326700       0.53976900       0.40168500
S        5.77460000       4.46239000       3.49280000       0.87121000      -0.21699000       0.55989900
S       -2.35744000       9.52920000       4.59330000       1.87767600      -0.31999100       0.36414500
S        3.55503000       9.69596000       3.18612000      -0.36421700       0.13446600      -0.47677600
S       -0.22095000       2.18381000       7.36456000      -0.58558800      -0.29708500       2.60414300
S        5.33283000       2.11945000       5.95568000       0.51430700      -0.09984600      -0.40627300
S        0.39939000       7.57500000       5.64637000       0.38259500      -0.13813500       0.20919700
S        6.43162000       7.58377000       4.25845000      -0.28558000      -0.58437400      -0.18312700
S        3.29739000       5.70101000       5.72996000      -0.13302100      -0.07462700      -0.31482800
S        8.97505000       5.30132000       4.11423000       0.82844100       0.27728000       0.32658800
S        3.68125000       0.48859000       8.80585000       0.32119200       0.41936900       0.23590800
S       10.05801000       0.35451000       7.75862000       0.04846600      -0.84060100      -0.64231500
S        0.95254000       5.55213000       8.21015000      -0.22388700      -0.33191000      -0.43584800
S        6.92815000       5.51794000       6.77612000      -0.44217000      -0.02458100      -0.13103600
S       -2.29409000       9.35545000       7.97027000       0.42859400      -0.49947800      -0.41039800
S        4.09352000       9.55196000       6.38018000      -0.38151200      -0.41716900       0.47131000
S        4.04163000       3.96523000       9.62607000       0.19668600      -1.22371800      -1.00576500
S        9.71473000       3.55792000       7.84816000       0.39750100       0.02723300      -0.34584700
S        0.83377000       2.40965000      11.03958000       0.13261500      -0.59786300      -0.95591800
S        6.86302000       1.94884000       9.41335000      -0.69433000       0.12231400      -0.22015600
83
Lattice="12.049483852 0.014100787 -2.826267705 -3.571931226 11.145541253 -3.653909468 0.023363077 0.084157872 12.436688049" Properties=species:S:1:pos:R:3:forces:R:3 energy=-358.38898222 pbc="T T T"
Li      -1.47121000       7.76547000       0.48809000       0.09854300      -0.23428600       0.33106900
Li       3.61190000       4.42369000      -0.34051000       0.09716400      -0.42173300      -0.11889500
Li      10.54591000       4.07535000       5.51647000       0.02806000       0.00773700       0.13321100
Li       0.59252000       9.61826000      -1.24232000       0.12090000       0.06287100       0.14014700
Li       2.53895000       0.25312000      11.03344000       0.17800900      -0.00118500       0.07208300
Li      11.65897000       0.06527000      -0.00457000       0.17275100       0.09466400      -0.01900500
Li       7.01807000       7.91539000      -2.71793000      -0.11755100      -0.02550900      -0.15073100
Li       2.67656000       7.42513000      -1.85491000       0.32681400       0.45262500      -0.22849900
Li       5.47998000      10.79740000      -0.71051000      -0.19539000       0.04459500       0.03500000
Li       9.76620000       4.01911000      -1.75392000      -0.00070600       0.02768400       0.07861100
Li       6.09652000       0.96405000       0.80006000       0.59173300      -0.11649500       0.04523800
Li      -0.82872000       7.38722000       3.67889000      -0.05305700      -0.08352500      -0.41686600
Li       5.10237000       7.70439000       1.96554000       0.14001100       0.00635600       0.03320100
Li       3.21330000       3.88427000       4.21659000      -0.10767100      -0.33771500      -0.36459000
Li       8.51320000       3.84936000       2.35408000       0.07223600      -0.52118700       0.34756900
Li       2.04172000       9.54953000       5.09529000      -0.24356400       0.03244300       0.16498100
Li       7.49460000       9.55496000       5.25175000      -0.53363800      -0.09636800       0.03712400
Li       4.39744000       4.15448000       7.13288000       0.36884700      -0.24265100       0.21271500
Li       7.90114000       1.54542000       6.72970000      -0.25893900       0.06750200       0.08448600
Li       8.33466000      11.20652000       2.48742000      -0.57813600       0.34338200      -0.13966700
Li       3.15341000       0.14454000       6.31093000       0.13286900       0.24804800       0.25192500
Li       1.24134000       1.93890000       0.80636000      -0.08453400      -0.18500000       0.71771400
Li       8.38831000       0.37714000      -1.46935000       0.27427700       0.74061900      -1.08780600
Li      -0.93972000       7.30288000       7.81936000       0.10349200       0.00098300       0.00547300
Li       4.99765000       7.03395000       6.70015000       0.22234000       0.59129900      -0.05668300
Li       1.77472000       3.02641000       8.90528000       0.01233900       0.22325400      -0.24985900
Li       7.58696000       4.38999000       8.78011000      -0.41509500      -1.14458000      -0.42993000
P       -2.44697000       8.93696000      -2.44736000      -0.60432200       1.84664900       0.45007400
P        3.59002000       9.16729000      -4.07208000       0.60295300      -0.38569200       0.69979400
P        1.32571000       5.57888000       1.15218000      -0.95351800      -0.92395600      -0.25133000
P        7.41018000       5.44304000      -0.13042000      -1.21722900      -0.44251200      -0.63329400
P        2.42028000       9.07968000       1.64479000       0.29631200      -1.15907000      -0.83562200
P        8.29607000       8.72498000       0.62122000       0.51610500       0.16629700      -1.09683400
P        0.17491000       2.41568000       5.47320000       1.45353200      -0.01953100      -1.86542000
P        6.09248000       2.29633000       4.01979000      -0.61093100       0.75908900       1.48900800
P        1.33538000       5.81519000       6.22755000      -0.76075700      -0.03644800       0.03812300
P        7.13396000       5.74191000       4.77233000      -0.77379300      -0.04352500      -0.23929600
P        4.79692000       1.96362000       9.83527000       0.73770200       0.73741300      -0.46544100
P       10.90844000       2.00115000       8.49729000      -0.69009500       0.86547700       1.92910200
S        1.57490000       8.97085000      -3.58089000       1.07442900       0.45000300      -0.09822200
S        7.55755000       9.17595000      -4.79866000       0.35467600      -0.86422700      -0.18554900
S       -1.24606000       7.48626000      -1.82974000       0.13592200      -1.37853500      -0.40966900
S        4.59062000       7.43063000      -3.37568000      -0.47336700       0.44673200      -0.11622100
S        4.43922000       1.55802000      -0.64661000      -0.67007800      -0.10669100       0.53908300
S       10.76473000       1.88369000      -1.78241000       0.00717600      -0.36074200      -0.93483700
S        1.56237000       5.75763000      -0.86213000      -0.36072300      -0.37299900       0.64839500
S        8.01294000       5.73489000      -2.08213000      -0.02871700       1.04187000       0.43651800
S       -1.65473000      10.54793000      -1.49139000       0.23642100       1.31694400       0.29168300
S        4.68128000      10.75870000      -3.08789000      -0.89175600      -0.36640400       0.49127000
S       -0.70189000       5.70476000       1.74675000       0.90394900       0.40164000      -0.35039100
S        5.42252000       5.91604000       0.22443000       1.20936100       0.35040000      -0.05141100
S        2.29424000       3.84791000       1.81044000      -0.16700600       0.55012200      -0.28724800
S        7.92210000       3.52043000       0.17555000       0.08625300      -0.04866900       0.15641800
S        3.34902000       9.18024000      -0.19896000      -0.62440500       0.04168300       0.88613300
S        8.75052000       9.04788000      -1.37524000      -0.40203300       0.04481900       0.64435300
S        4.84217000       1.54056000       2.70200000      -0.38821400      -0.36377900      -0.43438900
S       10.73419000       1.80382000       1.44284000      -0.08672300      -0.06720300       0.16511600
S        2.34683000       6.89604000       2.33719000       1.21790900       1.07419500       0.51388900
S        8.66657000       6.57249000       1.16684000      -0.68390800       0.91102900      -0.38260400
S        0.43474000       9.39712000       1.51101000      -0.42519000       0.37799500      -0.08966800
S        6.62968000       9.64960000       1.19664000      -0.91604400      -0.27694500      -0.09831100
S        2.09544000       1.81377000       5.04348000      -0.61245500       0.18073000      -0.04573200
S        8.03071000       1.80479000       4.02445000       0.46083200       0.05179500      -0.07574900
S        0.20645000       4.47729000       4.88141000      -0.18317200       0.53823400       0.41375800
S        5.78038000       4.46573000       3.50961000       0.82395700      -0.24833300       0.46307700
S       -2.36639000       9.53010000       4.60858000       1.78033400      -0.46840000       0.19346400
S        3.56131000       9.70752000       3.18383000      -0.34426300       0.10879200      -0.48114200
S       -0.23146000       2.18297000       7.34794000      -0.52446300      -0.24817700       2.57680000
S        5.32609000       2.11542000       5.94845000       0.51626100      -0.09941300      -0.37659600
S        0.39473000       7.57173000       5.64379000       0.44479100      -0.14934500       0.29043800
S        6.43698000       7.57818000       4.24880000      -0.27540800      -0.48257600      -0.15857900
S        3.30172000       5.68463000       5.71966000      -0.22756700       0.10012100      -0.17451700
S        8.97224000       5.30511000       4.10677000       1.00929100       0.22574100       0.37725600
S        3.67516000       0.48630000       8.80753000       0.28232600       0.42011900       0.24402300
S       10.05442000       0.34550000       7.76680000       0.12894100      -0.70405100      -0.63151600
S        0.96020000       5.55643000       8.20152000      -0.24914400      -0.35446700      -0.20890800
S        6.93104000       5.51674000       6.76834000      -0.43153800      -0.03706200       0.02998000
S       -2.29755000       9.36099000       7.97597000       0.47099100      -0.47524400      -0.63303800
S        4.09755000       9.54927000       6.36333000      -0.47594200      -0.44670100       0.73474000
S        4.03949000       3.96104000       9.62357000       0.16959500      -1.16902700      -0.97740000
S        9.71601000       3.55917000       7.85183000       0.39166800       0.02221800      -0.38301700
S        0.83616000       2.41386000      11.04589000       0.18474300      -0.60573600      -0.96362900
S        6.85795000       1.94295000       9.41703000      -0.80418000       0.13463300      -0.19736900
83
Lattice="12.049483852 0.014100787 -2.826267705 -3.571931226 11.145541253 -3.653909468 0.023363077 0.084157872 12.436688049" Properties=species:S:1:pos:R:3:forces:R:3 energy=-358.4373462 pbc="T T T"
Li      -1.43135000       7.75163000       0.48574000       0.01192100      -0.16574000       0.35832200
Li       3.60010000       4.41426000      -0.34627000       0.10673000      -0.38358800      -0.10662800
Li      10.53943000       4.06716000       5.54483000       0.01522200       0.01754800       0.04739200
Li       0.58830000       9.62744000      -1.22725000       0.11538400       0.06116000       0.12987500
Li       2.53042000       0.25959000      11.04486000       0.17814200      -0.00349300       0.03569400
Li      11.66286000       0.08473000       0.00202000       0.13603400       0.04548400      -0.04052500
Li       7.00299000       7.91062000      -2.72733000      -0.04990700      -0.00844100      -0.13413400
Li       2.66189000       7.41863000      -1.85713000       0.35322600       0.46168600      -0.21557400
Li       5.47406000      10.81140000      -0.72538000      -0.16834100       0.02233900       0.07598600
Li       9.79692000       4.00714000      -1.72837000      -0.13527900       0.11217300       0.06740100
Li       6.11075000       0.95681000       0.81601000       0.54050600      -0.08850900      -0.03217700
Li      -0.80392000       7.39579000       3.67690000      -0.11354100      -0.07248700      -0.45141700
Li       5.09405000       7.72961000       1.98457000       0.16034400      -0.03254400      -0.00590100
Li       3.23739000       3.90592000       4.23886000      -0.12797000      -0.49802200      -0.48382400
Li       8.53131000       3.86144000       2.34193000       0.07593300      -0.54331900       0.33321100
Li       2.03415000       9.54904000       5.04941000      -0.21477100       0.03397600       0.25757200
Li       7.48958000       9.55826000       5.27877000      -0.55360500      -0.10292800      -0.07268700
Li       4.42142000       4.16847000       7.12804000       0.38121200      -0.26702000       0.23044500
Li       7.89024000       1.56495000       6.74815000      -0.24985500       0.05380000       0.09150200
Li       8.33915000      11.21387000       2.48933000      -0.59252500       0.35226700      -0.14879000
Li       3.14165000       0.16717000       6.28718000       0.19334900       0.14385500       0.34921100
Li       1.24858000       1.93464000       0.82644000      -0.13189000      -0.20397200       0.62854400
Li       8.38962000       0.39641000      -1.46049000       0.24478800       0.69896100      -1.15862100
Li      -0.94787000       7.31062000       7.82591000       0.11116700      -0.01599500       0.00210400
Li       4.99346000       7.04901000       6.71180000       0.21208400       0.54304100      -0.12465600
Li       1.78703000       3.04354000       8.91262000      -0.03797400       0.18489200      -0.26693600
Li       7.58145000       4.37551000       8.79291000      -0.40417900      -1.09118300      -0.39711100
P       -2.44924000       8.95535000      -2.45600000      -0.43334100       1.20677800       0.70053900
P        3.58383000       9.15478000      -4.07181000       0.80563700      -0.23025300       0.40936800