96
Lattice="8.8952352 0.16559825 -0.2131418 0.003421363 17.770005 0.10049581 -0.11624187 0.078565445 12.471345" Properties=species:S:1:pos:R:3:forces:R:3 stress="-0.00017127325192336249 0.0009309959842349984 -0.0015918656950108957 0.0009309959842349984 0.0018531352670203688 -0.000351690314716144 -0.0015918656950108957 -0.000351690314716144 -0.0028095716424524674" free_energy=-1171.03299179 energy=-1171.03299179 pbc="T T T"
C        5.08740000       0.35880000       5.87293000      -1.33902900      -1.89089000       0.62638900
C        8.77175000       4.40339000       5.70566000      -0.70826100      -0.59215900       0.50966100
C        4.49488000       0.24935000       0.25625000       0.69151900      -0.40973600       1.41996700
C        0.01860000       4.11720000       0.35048000      -1.20118800      -0.26229600       0.37667300
C        4.56270000       9.42217000       6.35404000       2.08647400      -0.85733200      -0.28095100
C       -0.03696000      13.38941000       5.83221000      -0.89007800      -1.04703700       2.23791800
C        4.55866000       9.05314000       0.77796000      -0.39694200       0.16153700      -0.56893800
C        8.49033000      13.79594000      -0.01318000       0.57611500      -2.32349300      -0.40132400
H        3.12556000       0.46514000       6.39792000      -0.61238400      -0.54683600      -0.03103000
H        4.43807000       7.40639000       6.54573000       0.25912100       0.22529800      -0.12207800
H        6.06114000       7.99935000       6.51206000      -0.53719300       0.61467600       0.08064000
H        3.87967000       1.97657000       6.00094000       0.12432900      -0.99989100       0.13760500
H        5.91389000       0.96056000       5.71980000       1.64349700       1.06527100      -0.61236400
H        7.69800000       3.42784000       7.16493000      -0.12965400      -0.07286900       1.77264200
H        0.59598000       4.90435000       7.67213000       0.26035900       0.32621500       0.10410300
H        1.41557000       5.60489000       6.24407000      -0.93319700      -1.01094400       0.52470400
H        7.09881000       3.16348000       5.59690000       0.75114100       0.38100100       0.05288800
H        0.02994000       4.23564000       4.82404000      -0.33446400       0.15335600       0.65548400
H        3.62145000       1.26376000      11.17194000      -0.27140100       0.46256900      -0.52549800
H        5.04354000       8.21616000      11.55112000       0.06271700       0.00751000      -1.31073600
H        5.75056000       7.40855000       0.56733000      -0.71940800       0.82850200      -0.72391700
H        3.03831000       1.70098000       0.22185000       0.66489500      -0.46254300      -0.20327300
H        4.51082000       0.14615000       1.34178000      -0.48517300       0.20880200      -0.01703100
H        7.56292000       3.43740000      11.25344000       0.09030900       0.48379400       0.41071000
H        0.42367000       4.92907000      11.14616000      -0.36882100       0.40802400      -3.01662800
H        1.48897000       5.33215000      12.38961000      -0.01243300      -0.15005900       0.04136500
H        7.27984000       3.20274000       0.47761000       0.56594300       0.57956500      -0.87048300
H        0.24493000       4.18390000       1.34704000       0.17071500      -0.20774900       2.63643900
H        2.59046000       9.15505000       5.99554000      -1.25181800      -1.46162600       0.00657700
H        4.45379000      16.23057000       6.11249000      -0.49864000      -0.29751300       0.17260700
H        6.07015000      16.34730000       5.54753000      -1.23831500       1.16957800       1.21474600
H        3.13214000      10.72732000       5.96703000       0.19881300       0.20262900       0.21284100
H        5.28749000      10.19110000       6.36435000       0.59303800       0.98527600       0.05451900
H        8.07112000      12.82746000       7.40826000       0.07101100      -0.00750500      -1.23661900
H        0.80017000      14.40244000       7.31545000       0.35095400       0.50497200       0.93679400
H        1.26130000      14.86611000       5.66986000       0.46274100       0.48184600       0.01243300
H        7.54155000      12.01061000       5.96683000      -0.14098400      -0.18103900      -0.46915000
H       -0.03944000      13.26504000       4.79445000      -0.17924500      -0.24089300      -1.57085800
H        3.71969000      10.26687000      11.58344000       0.64015500      -0.71602300       0.84395800
H        5.45199000      17.37974000      11.28564000       0.40093500      -0.29295000      -0.81346600
H        5.92023000      16.65877000       0.41043000       0.34098700      -0.38207100      -0.03569900
H        3.40913000      10.71430000       0.64080000      -0.09809500       0.15547500       0.64313500
H        4.46892000       9.00509000       1.91964000       0.41942200       0.03502800      -1.81120700
H        0.21379000      11.65645000       0.23094000       0.30037600      -0.02856900      -0.03260500
H        1.42643000      13.77752000      12.10050000       0.50312700      -0.26984200      -0.10499500
H        0.56003000      15.31441000      12.13470000       0.09167700      -1.19054100      -0.00945500
H        7.43524000      12.04501000       0.54068000       2.27465600       1.34012900      -0.66174600
H        7.61742000      14.38642000       0.06035000      -0.84360000       0.58725500       0.43008200
I        0.06338000      17.61327000       0.20902000       0.08407300       0.14402700      -0.06952000
I        4.43303000       4.82362000      -0.03554000      -0.05777600      -0.19436700       0.17170200
I        6.14496000       1.82997000       9.38523000      -0.17472100       0.29810500       0.01363600
I        2.71160000       7.32453000       9.38261000      -0.21909900      -0.06222000      -0.03840000
I        7.11290000       6.17280000       9.09025000      -0.05171200      -0.04665500       0.17314600
I        1.58455000       2.61632000       9.37825000       0.23341500       0.20546300       0.03497800
I        0.15369000       0.12944000       6.32551000      -0.23425200       0.04434800      -0.11983400
I        4.45654000       4.40072000       6.17414000      -0.22025600       0.23909900       0.01517500
I        6.38764000       2.25204000       2.94426000       0.04576200       0.07117700      -0.10719200
I        2.47859000       7.06037000       3.42730000      -0.11960400       0.09083500       0.04887800
I        6.89882000       6.51131000       3.19918000      -0.06989500       0.09664800      -0.15295900
I        2.00297000       2.50354000       3.06780000       0.09779000       0.02864700      -0.12217700
I        0.09427000       8.59146000       0.05698000       0.01570600       0.01642100       0.09413500
I        4.42036000      13.55722000       0.00951000       0.00441700       0.07056100       0.27312200
I        5.99575000      10.88235000       9.37620000       0.30918300      -0.28878800       0.13957700
I        2.52393000      16.22527000       9.12635000       0.82142200      -0.42363400       0.13641300
I        7.15240000      15.08833000       9.34633000      -0.24666800       0.00406500      -0.17814300
I        1.76418000      11.49907000       9.37065000      -0.27720300      -0.17319600       0.22244900
I        8.83373000       9.04410000       6.07609000      -0.19469300      -0.03969000       0.02915400
I        4.27462000      13.25691000       6.36118000       0.07600900       0.05422500      -0.33393700
I        6.43015000      11.24313000       3.23474000       0.25267600      -0.26911300      -0.03460100
I        2.34926000      15.85249000       3.69937000       0.02739300       0.21773500      -0.39943600
I        6.65908000      15.59753000       3.12998000       0.19959800      -0.02878000      -0.21541400
I        2.07992000      11.35948000       2.98389000      -0.10632300       0.04672800       0.04415800
N        5.05753000       8.21880000       6.48189000      -0.40898600      -1.37982500       0.17476300
N        3.93511000       0.93123000       6.04047000      -0.05995200       1.90468600       0.09006700
N        0.70321000       4.96481000       6.66640000      -0.29630000      -0.25583400      -1.07682100
N        7.77537000       3.63359000       6.21156000       1.66012100       1.26852200      -2.62911000
N        5.18624000       8.13162000       0.06493000       0.73478600      -0.60691600       3.18332900
N        3.64898000       1.26180000      12.17687000      -0.27578900      -0.44864200      -0.02238900
N        0.69403000       4.79918000      12.05631000       2.70276800       1.58517900       0.06377200
N        7.71474000       3.78761000      12.21329000      -2.03535100      -2.28059300       0.41629400
N        5.26270000      16.82403000       6.07798000       1.72287200      -0.55267600      -1.24074700
N        3.35386000       9.75205000       6.12784000      -0.69856500       1.60257900      -0.13088200
N        0.75530000      14.29686000       6.32950000      -0.88312200      -0.88630800      -0.51491400
N        8.08140000      12.75526000       6.36373000       1.03769700       1.23433100       0.84016700
N        5.22814000      17.26503000      12.25092000      -1.19892300       1.18221700       0.36445600
N        3.95969000      10.04252000       0.13784000      -0.57461200       0.22381400      -0.41958100
N        0.55545000      14.26549000      12.19827000      -0.12821200       1.56673000       0.39578800
N        8.38991000      12.48907000       0.24951000      -2.61037000       0.10429800       0.42346900
Sn       0.13435000       0.22229000       3.06805000      -0.05701300      -0.25836500       0.32408400
Sn       4.46744000       4.79459000       3.09657000       0.41791800      -0.32980200       0.26547400
Sn       0.18790000      17.74470000       9.42183000      -0.66012800       0.22372200      -0.09288500
Sn       4.56116000       4.49577000       9.55435000      -0.07650500      -0.01659700      -0.61225800
Sn       0.26038000       9.05882000       3.06937000      -0.46452600      -0.08913600       0.29880500
Sn       4.47857000      13.51270000       3.17762000       0.05781700       0.17386100       0.00058400
Sn      -0.02612000       8.82787000       9.49918000       0.48096400       0.36230900      -0.32297200
Sn       4.56008000      13.43571000       9.40274000       0.01431500       0.09877000      -0.07904000
96
Lattice="8.895545698 0.167010254 -0.210000036 0.003386496 17.769568846 0.104224516 -0.116244781 0.078567413 12.471657324" Properties=species:S:1:pos:R:3:forces:R:3 stress="0.0008721884852509264 0.003463581934699019 0.0002071057558150583 0.003463581934699019 0.0004194418962776067 -0.00012048609216605042 0.0002071057558150583 -0.00012048609216605042 -0.0003052035547465654" free_energy=-1170.94984081 energy=-1170.94984081 pbc="T T T"
C        5.08714000       0.35426000       5.85864000      -0.22912400      -0.22451900       0.74900600
C        8.76649000       4.42070000       5.70978000      -0.95700600      -0.80971200       1.47951400
C        4.49243000       0.26075000       0.25368000       0.87199000      -0.95852600       1.34792400
C        0.01643000       4.11020000       0.35016000      -1.05864800      -0.00948300       0.86294500
C        4.55541000       9.43125000       6.37049000       2.81192000      -0.46059500      -0.66794000
C       -0.04585000      13.39095000       5.84155000      -0.62552700      -1.36267400      -0.08005800
C        4.56707000       9.04095000       0.78530000      -1.07430200       1.01715800      -2.41906400
C        8.50439000      13.78703000      -0.01083000      -1.40006400      -0.64169400      -0.49585500
H        3.11566000       0.43846000       6.43849000       0.77733300       0.20126700      -0.70909000
H        4.46769000       7.40837000       6.59189000      -0.09863200      -0.09893400      -0.13075000
H        6.02688000       8.04112000       6.46966000       1.32106400       0.17483400       0.14359500
H        3.82348000       1.91931000       6.04782000       0.29473300       1.64602000      -0.05273300
H        5.96185000       0.96049000       5.74274000       0.38850400       0.28302600      -0.54085000
H        7.67620000       3.41272000       7.19010000       0.22561400       0.33514100       0.67652000
H        0.63435000       4.89014000       7.68384000       0.15846500       0.24101900       0.01071000
H        1.38945000       5.57836000       6.25124000      -0.09243800      -0.25207400       0.09949400
H        7.03331000       3.14942000       5.62266000       1.97553200       1.24148300       0.62648500
H        0.02933000       4.29043000       4.85128000      -0.36001500       0.04347700      -0.16637600
H        3.59069000       1.26704000      11.16103000      -0.15473300       0.42390800      -0.02109800
H        5.10423000       8.22587000      11.58836000       0.15534700       0.14053200      -3.53441500
H        5.73418000       7.42124000       0.59927000      -0.59643200       0.65778300      -0.87457200
H        3.03515000       1.69689000       0.23112000       0.71305500      -0.47668500      -0.27395500
H        4.48628000       0.12452000       1.33703000      -0.42305600       0.36154000      -0.03837100
H        7.55158000       3.42685000      11.24983000       0.10272000       0.55005500       0.79626400
H        0.42008000       4.97409000      11.04635000       0.50566700      -0.40469800       1.25061400
H        1.53348000       5.34372000      12.36867000      -1.15976900      -0.91437800      -0.19307600
H        7.27433000       3.21928000       0.48597000       0.23733600       0.22464000      -0.54601500
H        0.25359000       4.19076000       1.37555000      -0.10169700      -0.32900700       1.28746500
H        2.60434000       9.10665000       6.01257000      -0.81274300      -0.61685800       0.05373800
H        4.42291000      16.19676000       6.13962000       1.13495800       0.88290300      -0.02361000
H        6.07147000      16.37169000       5.55185000      -1.04257300       0.88843200       1.06194400
H        3.15365000      10.74199000       5.98632000      -0.17076100       0.10403500       0.11869800
H        5.31222000      10.20708000       6.33554000      -0.16917200       0.28787400       0.15562100
H        8.11745000      12.84011000       7.38359000      -0.08621600      -0.02013400       0.20701200
H        0.80204000      14.40135000       7.31850000       0.29963600       0.47641100       1.04551200
H        1.26000000      14.85295000       5.70903000       0.94035200       0.99450500      -0.75185600
H        7.48234000      11.96664000       5.97741000       1.37721000       1.73764100       0.45805000
H        0.00913000      13.27542000       4.75436000      -0.47061500      -0.15329100       0.26170400
H        3.66270000      10.25511000      11.60580000       0.90982400      -0.86328900       0.74402900
H        5.45804000      17.38545000      11.24089000      -0.01134700      -0.47633100       1.15891300
H        5.91956000      16.66541000       0.43239000       0.08050700      -0.13995600      -0.43543100
H        3.39916000      10.73724000       0.61279000       0.03343100      -0.01398000       1.03997800
H        4.43805000       8.99273000       1.85930000       0.49223500      -0.15623100       0.08274700
H        0.17877000      11.64547000       0.22604000       0.72836000      -0.16095400      -0.08170600
H        1.38075000      13.79728000      12.12551000       2.69427400      -1.45595300      -0.33963700
H        0.59323000      15.25606000      12.16879000      -0.06154500       1.70362800      -0.19175900
H        7.49030000      12.06318000       0.50233000       0.17993100       0.68534900      -0.03426200
H        7.58733000      14.39213000       0.01130000       0.38224800      -0.21894500       0.50565200
I        0.06193000      17.60897000       0.21396000       0.08708200       0.16480300      -0.03924200
I        4.43152000       4.82360000      -0.03132000      -0.07173400      -0.18308500       0.16716100
I        6.14656000       1.82915000       9.38392000      -0.16444500       0.28765600      -0.00122400
I        2.71635000       7.32377000       9.38355000      -0.23632800      -0.06514900      -0.03537100
I        7.11181000       6.17370000       9.09398000      -0.04221000      -0.04467200       0.18265300
I        1.59068000       2.61519000       9.38001000       0.23747500       0.18581600       0.02367200
I        0.15643000       0.13303000       6.32907000      -0.23291300       0.03900000      -0.12718500
I        4.45328000       4.40621000       6.17867000      -0.21126200       0.25497700       0.02229300
I        6.38592000       2.25634000       2.94680000       0.04208400       0.06282900      -0.09582700
I        2.48058000       7.06117000       3.42802000      -0.12953200       0.10610000       0.04063000
I        6.89846000       6.51173000       3.20403000      -0.07334800       0.10861400      -0.16384800
I        2.00815000       2.50518000       3.07071000       0.08644000       0.01624600      -0.10904400
I        0.09692000       8.58902000       0.05783000       0.00941900       0.03409200       0.08439400
I        4.42071000      13.55737000       0.01691000       0.00370700       0.06923100       0.26186100
I        5.99531000      10.88146000       9.37859000       0.30803200      -0.27490900       0.14097300
I        2.52227000      16.22320000       9.12936000       0.84713000      -0.43915300       0.12707400
I        7.15274000      15.08571000       9.35294000      -0.25172900       0.01394600      -0.18544000
I        1.76450000      11.49384000       9.37216000      -0.27249100      -0.16217600       0.23043000
I        8.83440000       9.04134000       6.07801000      -0.19693800      -0.03546900       0.03328400
I        4.27725000      13.25641000       6.36624000       0.06221800       0.05844600      -0.32612600
I        6.42997000      11.24573000       3.24041000       0.24887300      -0.27118300      -0.01750400
I        2.34744000      15.85669000       3.70583000       0.03330000       0.19820600      -0.39291800
I        6.65959000      15.59743000       3.13465000       0.19418000      -0.02590700      -0.21833800
I        2.08218000      11.35873000       2.99128000      -0.11124200       0.06574100       0.03963900
N        5.05836000       8.22383000       6.48690000      -1.89849300      -0.35615000       0.24630900
N        3.94173000       0.94367000       6.04854000      -1.45788200      -1.94459200       0.84337300
N        0.70031000       4.96359000       6.67461000      -0.76464000      -0.68631100      -0.52436600
N        7.78481000       3.63810000       6.21906000       0.08697800       0.09439900      -2.30185200
N        5.18263000       8.12815000       0.06301000       0.81531700      -0.89687500       5.61930200
N        3.65036000       1.26920000      12.17607000      -0.64712400      -0.11308700      -0.45649500
N        0.69105000       4.80133000      12.05138000       2.43737000       2.67995800      -3.33218500
N        7.69807000       3.77886000      12.22029000      -1.05184700      -1.63358400      -0.06932300
N        5.26546000      16.83081000       6.07620000      -0.12890200      -1.92322500      -0.97701700
N        3.34866000       9.75728000       6.11976000      -0.74537000       0.88670900       0.07596500
N        0.74580000      14.29342000       6.33506000      -1.12971500      -1.09228100       0.46776500
N        8.08801000      12.75462000       6.37658000      -0.46015400      -0.71861800      -1.39149100
N        5.22127000      17.26543000      12.25372000      -0.56138300       1.24191100      -1.09794400
N        3.95994000      10.04133000       0.15436000      -0.63917500       0.21182800      -0.81572600
N        0.55517000      14.27665000      12.19916000      -1.69869600      -0.49344300       0.79276100
N        8.38467000      12.49721000       0.25754000      -0.66387400       0.33752600      -0.13816900
Sn       0.13567000       0.22542000       3.07036000      -0.05962700      -0.23625800       0.27086600
Sn       4.46745000       4.79177000       3.09949000       0.42020300      -0.34173600       0.29207800
Sn       0.18756000      17.74257000       9.41966000      -0.68383400       0.24494800      -0.04300800
Sn       4.55782000       4.49424000       9.55887000      -0.06805600      -0.00173600      -0.62122500
Sn       0.26611000       9.06148000       3.07128000      -0.46676100      -0.10959600       0.32370200
Sn       4.47799000      13.51508000       3.18184000       0.06668600       0.17945400      -0.02219100
Sn      -0.02636000       8.83049000       9.50177000       0.46763700       0.33721400      -0.34556200
Sn       4.55837000      13.43806000       9.40716000       0.02987600       0.07799100      -0.04915900
96
Lattice="8.895798693 0.168166835 -0.206789096 0.003357384 17.769005376 0.107332591 -0.116248252 0.078569758 12.472029662" Properties=species:S:1:pos:R:3:forces:R:3 stress="0.0007963229418258155 0.0033677872526349626 0.0006815478305099484 0.0033677872526349626 0.00025803647028226567 -0.0003876538902994833 0.0006815478305099484 -0.0003876538902994833 0.0024629993652195478" free_energy=-1170.78856141 energy=-1170.78856141 pbc="T T T"
C        5.08616000       0.34946000       5.84603000       0.96307700       1.49325400       0.89104600
C        8.75803000       4.43421000       5.71787000      -0.73391700      -0.62384800       1.77565100
C        4.49330000       0.26852000       0.25336000       0.57099800      -0.86998500       0.66837400
C        0.01318000       4.10525000       0.35146000      -0.35631000       0.48861000       1.91192800
C        4.55804000       9.43914000       6.38805000       2.40162700       0.40491000      -1.23423200
C        8.83959000      13.55399000       5.64184000       0.03403800      -0.96520600      -1.55807100
C        4.57152000       9.03327000       0.78441000      -1.22554900       1.58755200      -4.29367200
C        8.51233000      13.77431000      -0.01123000      -2.01065300       0.87666100      -0.64003800
H        3.14558000       0.41105000       6.45696000       0.63391400       0.23694300      -0.71101100
H        4.49459000       7.40926000       6.63212000      -0.41831700      -0.45568600      -0.09808700
H        6.03121000       8.08816000       6.43584000       1.21808400      -0.00269500       0.16338700
H        3.77507000       1.92517000       6.09814000       0.55964200       1.27733000      -0.12868200
H        6.02116000       0.96877000       5.75089000      -1.08969300      -0.61702300      -0.46130800
H        7.66669000       3.40986000       7.23554000       0.55584400       0.76374100      -1.06991400
H        0.67380000       4.87717000       7.69076000       0.05493100       0.14661700       0.03701600
H        1.36150000       5.55247000       6.25863000       0.90113300       0.64395500      -0.48546200
H        7.04920000       3.19044000       5.66836000       1.02562200       0.61425900      -0.27607800
H        0.02645000       4.35609000       4.87019000      -0.44848700      -0.08758900      -0.56633900
H        3.54856000       1.28599000      11.15393000       0.04832000       0.31494100       0.32397100
H        5.15613000       8.23901000      11.48698000      -0.21007300       0.00089400       2.06278500
H        5.69641000       7.45233000       0.59356000       0.66185900      -0.98713700       0.25646500
H        3.06334000       1.68189000       0.23206000      -0.13588500       0.13550800       0.31556100
H        4.44294000       0.12477000       1.32594000      -0.21311500       0.31368800       0.22873600
H        7.55067000       3.43107000      11.27646000      -0.12843500       0.19229500      -0.03543600
H        0.42584000       5.00305000      10.98768000       0.63378900      -0.69139000       2.50234900
H        1.54203000       5.31964000      12.34282000      -0.66660300      -0.55155600       0.06982300
H        7.27662000       3.25122000       0.47789000      -0.75712500      -0.66229600       0.67917100
H        0.26060000       4.17382000       1.45362000      -0.50144000      -0.36247900      -1.22879000
H        2.58286000       9.03085000       6.03194000       0.77564400       1.35848200       0.18777000
H        4.43769000      16.19356000       6.15894000       0.91257900       0.71199500      -0.06716600
H        6.02808000      16.42696000       5.60483000       1.50357100      -0.65416400      -0.44537300
H        3.16379000      10.75846000       6.01989000      -0.47166100      -0.00389000       0.04083600
H        5.33563000      10.24280000       6.31844000      -0.89447500      -0.57103800       0.29838700
H        8.16111000      12.85005000       7.36203000      -0.14553800      -0.02262100       1.40566200
H        0.81436000      14.42150000       7.36828000      -0.02028700       0.04550500      -0.94209300
H        1.29058000      14.88656000       5.72223000      -0.13860400      -0.18633700       0.11420200
H        7.47830000      11.98874000       6.00696000       1.04669500       1.22884600       0.19668300
H        0.03432000      13.28223000       4.72655000      -0.69545100      -0.13420700       1.26600500
H        3.63996000      10.21487000      11.65324000       0.73317600      -0.64261400      -0.49225900
H        5.45980000      17.36375000      11.23757000      -0.10628000      -0.33466800       1.25527100
H        5.91218000      16.67690000       0.44832000      -0.08427600      -0.05276300      -0.68646500
H        3.39846000      10.75730000       0.62555000       0.44692900      -0.55243800       0.80675400
H        4.43100000       8.97618000       1.79295000       0.25511700      -0.30640500       2.76864100
H        0.18675000      11.62360000       0.22043000      -0.07769200       0.68951100       0.25955800
H        1.44295000      13.75582000      12.13532000      -0.66006800       0.54315800      -0.03208800
H        0.64269000      15.26695000      12.19840000      -0.28849400       1.47781000      -0.10199800
H        7.55455000      12.10952000       0.46871000      -3.98063800      -1.24155300       1.00522400
H        7.58329000      14.38869000      -0.01786000       0.64948600      -0.46587500       0.60680200
I        0.06025000      17.60404000       0.21830000       0.09626200       0.17823600      -0.03585300
I        4.43066000       4.82361000      -0.02724000      -0.06869600      -0.17443800       0.15678200
I        6.14770000       1.82857000       9.38245000      -0.15510200       0.28935300      -0.02450500
I        2.72082000       7.32267000       9.38451000      -0.23229800      -0.06755600      -0.03386100
I        7.10997000       6.17502000       9.09793000      -0.04038100      -0.04495400       0.19370600
I        1.59617000       2.61375000       9.38216000       0.24052000       0.17489600       0.01581100
I        0.15938000       0.13651000       6.33178000      -0.24438100       0.04428700      -0.13178600
I        4.45033000       4.41182000       6.18339000      -0.20363800       0.24110300       0.03661200
I        6.38381000       2.25968000       2.94902000       0.04854600       0.05412000      -0.10545600
I        2.48177000       7.06144000       3.42849000      -0.13538900       0.10925600       0.03644200
I        6.89801000       6.51182000       3.20855000      -0.07686700       0.10339800      -0.15282300
I        2.01254000       2.50732000       3.07366000       0.07899800       0.00407700      -0.08468000
I        0.09990000       8.58631000       0.05844000       0.00651800       0.04598600       0.06992600
I        4.42176000      13.55739000       0.02329000      -0.02206700       0.06865100       0.23988900
I        5.99531000      10.88006000       9.38079000       0.30754300      -0.27701400       0.15323300
I        2.52082000      16.22113000       9.13243000       0.86604600      -0.45538900       0.11656400
I        7.15268000      15.08233000       9.35913000      -0.26029900       0.02901900      -0.19368100
I        1.76453000      11.48938000       9.37341000      -0.28045000      -0.15605400       0.22715300
I        8.83482000       9.03824000       6.07985000      -0.19670000      -0.04551500       0.04276700
I        4.28041000      13.25601000       6.37101000       0.05521800       0.06678300      -0.31275100
I        6.42876000      11.24780000       3.24557000       0.23743400      -0.26242500      -0.02036500
I        2.34607000      15.86063000       3.71233000       0.03166100       0.19114900      -0.37155200
I        6.65954000      15.59658000       3.13849000       0.17620200      -0.02329500      -0.24435300
I        2.08407000      11.35822000       2.99919000      -0.11349300       0.08429300       0.02733400
N        5.05484000       8.22702000       6.49081000      -1.14565700       0.32755800       0.29276300
N        3.94386000       0.94943000       6.05718000      -1.30881300      -2.06162700       0.81369600
N        0.69722000       4.96052000       6.68194000      -1.41529100      -1.29479800       0.12484700
N        7.79588000       3.64322000       6.22045000       0.31672800       0.03557100       0.37119500
N        5.18108000       8.12297000       0.07937000       0.26444100       0.42114100      -1.56834000
N        3.65203000       1.27801000      12.17368000      -0.05548100      -0.53802900      -1.22386700
N        0.69670000       4.81112000      12.03733000       0.65085300       1.68570800      -3.53282500
N        7.67972000       3.76693000      12.22847000       1.02350800       0.08802500      -0.31698500
N        5.26420000      16.83163000       6.06979000      -2.40927500      -0.58051100       0.48409900